# vtk DataFile Version 1.0
Geometric Data
ASCII
 
DATASET UNSTRUCTURED_GRID
POINTS        31 float
  6.  0.  3.
  24.  0.  3.
  42.  0.  3.
 -11.3210001  30.  3.
  6.6789999  30.  3.
  24.6790009  30.  3.
 -28.6410007  60.  3.
 -10.6409998  60.  3.
  7.35900021  60.  3.
 -45.9620018  90.  3.
 -27.9619999  90.  3.
 -9.96199989  90.  3.
 -63.2820015  120.  3.
 -45.2820015  120.  3.
 -27.2819996  120.  3.
  6.  0. -3.
  24.  0. -3.
  42.  0. -3.
 -11.3210001  30. -3.
  6.6789999  30. -3.
  24.6790009  30. -3.
 -28.6410007  60. -3.
 -10.6409998  60. -3.
  7.35900021  60. -3.
 -45.9620018  90. -3.
 -27.9619999  90. -3.
 -9.96199989  90. -3.
 -63.2820015  120. -3.
 -45.2820015  120. -3.
 -27.2819996  120. -3.
  9.  0.  0.
 
CELLS       83       325
          4         15          0          3         18
          4         18          3          6         21
          4         21          6          9         24
          4         24          9         12         27
          4         16          1          4         19
          4         19          4          7         22
          4         22          7         10         25
          4         25         10         13         28
          4         17          2          5         20
          4         20          5          8         23
          4         23          8         11         26
          4         26         11         14         29
          4         15          0          1         16
          4         16          1          2         17
          4         18          3          4         19
          4         19          4          5         20
          4         21          6          7         22
          4         22          7          8         23
          4         24          9         10         25
          4         25         10         11         26
          4         27         12         13         28
          4         28         13         14         29
          4          0          1          4          3
          4          3          4          7          6
          4          6          7         10          9
          4          9         10         13         12
          4          1          2          5          4
          4          4          5          8          7
          4          7          8         11         10
          4         10         11         14         13
          4         15         16         19         18
          4         18         19         22         21
          4         21         22         25         24
          4         24         25         28         27
          4         16         17         20         19
          4         19         20         23         22
          4         22         23         26         25
          4         25         26         29         28
          2          0         15
          2          1         16
          2          2         17
          2          3         18
          2          4         19
          2          5         20
          2          6         21
          2          7         22
          2          8         23
          2          9         24
          2         10         25
          2         11         26
          2         12         27
          2         13         28
          2         14         29
          2          0          3
          2          3          6
          2          6          9
          2          9         12
          2         15         18
          2         18         21
          2         21         24
          2         24         27
          2          1          4
          2          4          7
          2          7         10
          2         10         13
          2         16         19
          2         19         22
          2         22         25
          2         25         28
          2          2          5
          2          5          8
          2          8         11
          2         11         14
          2         17         20
          2         20         23
          2         23         26
          2         26         29
          2          0         30
          2          1         30
          2          2         30
          2         15         30
          2         16         30
          2         17         30
CELL_TYPES       83
       9
       9
       9
       9
       9
       9
       9
       9
       9
       9
       9
       9
       9
       9
       9
       9
       9
       9
       9
       9
       9
       9
       9
       9
       9
       9
       9
       9
       9
       9
       9
       9
       9
       9
       9
       9
       9
       9
       3
       3
       3
       3
       3
       3
       3
       3
       3
       3
       3
       3
       3
       3
       3
       3
       3
       3
       3
       3
       3
       3
       3
       3
       3
       3
       3
       3
       3
       3
       3
       3
       3
       3
       3
       3
       3
       3
       3
       3
       3
       3
       3
       3
       3
POINT_DATA       31
VECTORS Disp_xyz float
    0.000000E+00    0.000000E+00   -0.158969E+00
    0.000000E+00    0.000000E+00   -0.158969E+00
    0.000000E+00    0.000000E+00   -0.158969E+00
    0.160792E-01   -0.353590E-01    0.106031E+00
    0.131317E-01   -0.229230E-01    0.286784E-01
    0.125807E-01   -0.162098E-01   -0.412545E-01
    0.254574E-01   -0.419879E-01    0.624928E+00
    0.241351E-01   -0.388156E-01    0.473885E+00
    0.239535E-01   -0.346651E-01    0.326922E+00
    0.288673E-01   -0.435607E-01    0.121613E+01
    0.283655E-01   -0.427087E-01    0.104206E+01
    0.283105E-01   -0.421570E-01    0.867479E+00
    0.294059E-01   -0.431837E-01    0.181673E+01
    0.294134E-01   -0.433047E-01    0.163931E+01
    0.293752E-01   -0.431980E-01    0.146111E+01
    0.000000E+00    0.000000E+00   -0.158969E+00
    0.000000E+00    0.000000E+00   -0.158969E+00
    0.000000E+00    0.000000E+00   -0.158969E+00
   -0.160787E-01    0.353595E-01    0.101608E+00
   -0.131312E-01    0.229232E-01    0.244840E-01
   -0.125803E-01    0.162097E-01   -0.442292E-01
   -0.254561E-01    0.419888E-01    0.619951E+00
   -0.241338E-01    0.388162E-01    0.469701E+00
   -0.239522E-01    0.346654E-01    0.325645E+00
   -0.288655E-01    0.435620E-01    0.121165E+01
   -0.283637E-01    0.427096E-01    0.103887E+01
   -0.283087E-01    0.421575E-01    0.866031E+00
   -0.294035E-01    0.431854E-01    0.181582E+01
   -0.294110E-01    0.433060E-01    0.163837E+01
   -0.293728E-01    0.431989E-01    0.146089E+01
    0.000000E+00    0.000000E+00   -0.158969E+00
