# vtk DataFile Version 1.0
Geometric Data
ASCII
 
DATASET UNSTRUCTURED_GRID
POINTS        31 float
  6.  0.  3.
  24.  0.  3.
  42.  0.  3.
 -11.3210001  30.  3.
  6.6789999  30.  3.
  24.6790009  30.  3.
 -28.6410007  60.  3.
 -10.6409998  60.  3.
  7.35900021  60.  3.
 -45.9620018  90.  3.
 -27.9619999  90.  3.
 -9.96199989  90.  3.
 -63.2820015  120.  3.
 -45.2820015  120.  3.
 -27.2819996  120.  3.
  6.  0. -3.
  24.  0. -3.
  42.  0. -3.
 -11.3210001  30. -3.
  6.6789999  30. -3.
  24.6790009  30. -3.
 -28.6410007  60. -3.
 -10.6409998  60. -3.
  7.35900021  60. -3.
 -45.9620018  90. -3.
 -27.9619999  90. -3.
 -9.96199989  90. -3.
 -63.2820015  120. -3.
 -45.2820015  120. -3.
 -27.2819996  120. -3.
  9.  0.  0.
 
CELLS       83       325
          4         15          0          3         18
          4         18          3          6         21
          4         21          6          9         24
          4         24          9         12         27
          4         16          1          4         19
          4         19          4          7         22
          4         22          7         10         25
          4         25         10         13         28
          4         17          2          5         20
          4         20          5          8         23
          4         23          8         11         26
          4         26         11         14         29
          4         15          0          1         16
          4         16          1          2         17
          4         18          3          4         19
          4         19          4          5         20
          4         21          6          7         22
          4         22          7          8         23
          4         24          9         10         25
          4         25         10         11         26
          4         27         12         13         28
          4         28         13         14         29
          4          0          1          4          3
          4          3          4          7          6
          4          6          7         10          9
          4          9         10         13         12
          4          1          2          5          4
          4          4          5          8          7
          4          7          8         11         10
          4         10         11         14         13
          4         15         16         19         18
          4         18         19         22         21
          4         21         22         25         24
          4         24         25         28         27
          4         16         17         20         19
          4         19         20         23         22
          4         22         23         26         25
          4         25         26         29         28
          2          0         15
          2          1         16
          2          2         17
          2          3         18
          2          4         19
          2          5         20
          2          6         21
          2          7         22
          2          8         23
          2          9         24
          2         10         25
          2         11         26
          2         12         27
          2         13         28
          2         14         29
          2          0          3
          2          3          6
          2          6          9
          2          9         12
          2         15         18
          2         18         21
          2         21         24
          2         24         27
          2          1          4
          2          4          7
          2          7         10
          2         10         13
          2         16         19
          2         19         22
          2         22         25
          2         25         28
          2          2          5
          2          5          8
          2          8         11
          2         11         14
          2         17         20
          2         20         23
          2         23         26
          2         26         29
          2          0         30
          2          1         30
          2          2         30
          2         15         30
          2         16         30
          2         17         30
CELL_TYPES       83
       9
       9
       9
       9
       9
       9
       9
       9
       9
       9
       9
       9
       9
       9
       9
       9
       9
       9
       9
       9
       9
       9
       9
       9
       9
       9
       9
       9
       9
       9
       9
       9
       9
       9
       9
       9
       9
       9
       3
       3
       3
       3
       3
       3
       3
       3
       3
       3
       3
       3
       3
       3
       3
       3
       3
       3
       3
       3
       3
       3
       3
       3
       3
       3
       3
       3
       3
       3
       3
       3
       3
       3
       3
       3
       3
       3
       3
       3
       3
       3
       3
       3
       3
POINT_DATA       31
VECTORS Disp_xyz float
    0.000000E+00   -0.316916E-02    0.000000E+00
    0.000000E+00   -0.316916E-02    0.000000E+00
    0.000000E+00   -0.316916E-02    0.000000E+00
   -0.812267E-01   -0.193088E-02   -0.399991E+00
   -0.479583E-01   -0.228415E-01   -0.130328E-01
   -0.230474E-01   -0.327652E-01    0.192759E+00
   -0.119883E+00   -0.536521E-01   -0.798003E+00
   -0.100273E+00   -0.565575E-01   -0.901759E-01
   -0.779629E-01   -0.641982E-01    0.453629E+00
   -0.144034E+00   -0.874242E-01   -0.884860E+00
   -0.131105E+00   -0.889048E-01    0.598311E-01
   -0.114281E+00   -0.955415E-01    0.789015E+00
   -0.161050E+00   -0.100754E+00   -0.823604E+00
   -0.154812E+00   -0.996550E-01    0.187162E+00
   -0.142939E+00   -0.106933E+00    0.112663E+01
    0.000000E+00    0.316916E-02    0.000000E+00
    0.000000E+00    0.316916E-02    0.000000E+00
    0.000000E+00    0.316916E-02    0.000000E+00
    0.812275E-01    0.193144E-02   -0.369781E+00
    0.479591E-01    0.228417E-01   -0.127171E-01
    0.230483E-01    0.327653E-01    0.193449E+00
    0.119884E+00    0.536529E-01   -0.748126E+00
    0.100275E+00    0.565580E-01   -0.849427E-01
    0.779641E-01    0.641984E-01    0.454679E+00
    0.144035E+00    0.874253E-01   -0.842095E+00
    0.131106E+00    0.889056E-01    0.219686E-01
    0.114283E+00    0.955420E-01    0.773501E+00
    0.161052E+00    0.100755E+00   -0.801113E+00
    0.154815E+00    0.996561E-01    0.176635E+00
    0.142941E+00    0.106934E+00    0.108674E+01
    0.000000E+00    0.000000E+00    0.000000E+00
