# vtk DataFile Version 1.0
Geometric Data
ASCII
 
DATASET UNSTRUCTURED_GRID
POINTS       247 float
  0.  0.  0.
  12.  0.  0.
  24.  0.  0.
  36.  0.  0.
  48.  0.  0.
  36.  0.  0.
  24.  0.  0.
  12.  0.  0.
 -69.2799988  120.  0.
 -57.2799988  120.  0.
 -45.2799988  120.  0.
 -33.2799988  120.  0.
 -21.2800007  120.  0.
 -33.2799988  120.  0.
 -45.2799988  120.  0.
 -57.2799988  120.  0.
  0.  0.  0.
  4.79999971  0.  0.
  9.59999943  0.  0.
  14.3999996  0.  0.
  19.1999989  0.  0.
  24.  0.  0.
  28.7999992  0.  0.
  33.5999985  0.  0.
  38.3999977  0.  0.
  43.2000008  0.  0.
  48.  0.  0.
 -3.46399999  6.  0.
  1.33599997  6.  0.
  6.13599968  6.  0.
  10.9359999  6.  0.
  15.7360001  6.  0.
  20.5359993  6.  0.
  25.3359985  6.  0.
  30.1359997  6.  0.
  34.9360008  6.  0.
  39.7360001  6.  0.
  44.5359993  6.  0.
 -6.92799997  12.  0.
 -2.12800002  12.  0.
  2.67199993  12.  0.
  7.47199965  12.  0.
  12.2719994  12.  0.
  17.0719986  12.  0.
  21.8719997  12.  0.
  26.671999  12.  0.
  31.4720001  12.  0.
  36.2719994  12.  0.
  41.0719986  12.  0.
 -10.3920002  18.  0.
 -5.59200048  18.  0.
 -0.792000413  18.  0.
  4.00799942  18.  0.
  8.80799961  18.  0.
  13.6079988  18.  0.
  18.407999  18.  0.
  23.2079983  18.  0.
  28.0079994  18.  0.
  32.8079987  18.  0.
  37.6079979  18.  0.
 -13.8559999  24.  0.
 -9.05599976  24.  0.
 -4.25600004  24.  0.
  0.543999732  24.  0.
  5.34399986  24.  0.
  10.1439991  24.  0.
  14.9439993  24.  0.
  19.7439995  24.  0.
  24.5439987  24.  0.
  29.3439999  24.  0.
  34.1439972  24.  0.
 -17.3199997  30.  0.
 -12.5199995  30.  0.
 -7.71999979  30.  0.
 -2.92000008  30.  0.
  1.87999988  30.  0.
  6.67999983  30.  0.
  11.4799995  30.  0.
  16.2799988  30.  0.
  21.0799999  30.  0.
  25.8799992  30.  0.
  30.6799984  30.  0.
 -20.7840004  36.  0.
 -15.9840002  36.  0.
 -11.184001  36.  0.
 -6.38400078  36.  0.
 -1.58400083  36.  0.
  3.21599913  36.  0.
  8.01599884  36.  0.
  12.815999  36.  0.
  17.6159992  36.  0.
  22.4159985  36.  0.
  27.2159977  36.  0.
 -24.2479992  42.  0.
 -19.448  42.  0.
 -14.6479998  42.  0.
 -9.84799957  42.  0.
 -5.04799938  42.  0.
 -0.247999728  42.  0.
  4.55200005  42.  0.
  9.35200024  42.  0.
  14.1520004  42.  0.
  18.9519997  42.  0.
  23.7519989  42.  0.
 -27.7119999  48.  0.
 -22.9120007  48.  0.
 -18.1119995  48.  0.
 -13.3120003  48.  0.
 -8.51200008  48.  0.
 -3.71200037  48.  0.
  1.08799946  48.  0.
  5.88799953  48.  0.
  10.6879997  48.  0.
  15.487999  48.  0.
  20.2879982  48.  0.
 -31.1759987  54.  0.
 -26.3759995  54.  0.
 -21.5759983  54.  0.
 -16.7759991  54.  0.
 -11.9759989  54.  0.
 -7.17599916  54.  0.
 -2.37599945  54.  0.
  2.4240005  54.  0.
  7.22400045  54.  0.
  12.0240002  54.  0.
  16.8239994  54.  0.
 -34.6399994  60.  0.
 -29.8400002  60.  0.
 -25.039999  60.  0.
 -20.2399998  60.  0.
 -15.4399996  60.  0.
 -10.6400003  60.  0.
 -5.84000015  60.  0.
 -1.0400002  60.  0.
  3.75999975  60.  0.
  8.55999947  60.  0.
  13.3599997  60.  0.
 -38.1040001  66.  0.
 -33.3040009  66.  0.
 -28.5039997  66.  0.
 -23.7040005  66.  0.
 -18.9040012  66.  0.
 -14.104001  66.  0.
 -9.30400085  66.  0.
 -4.50400066  66.  0.
  0.29599905  66.  0.
  5.09599876  66.  0.
  9.89599895  66.  0.
 -41.5680008  72.  0.
 -36.7680016  72.  0.
 -31.9680004  72.  0.
 -27.1680012  72.  0.
 -22.3680019  72.  0.
 -17.5680008  72.  0.
 -12.7680016  72.  0.
 -7.96800137  72.  0.
 -3.16800165  72.  0.
  1.6319983  72.  0.
  6.43199825  72.  0.
 -45.0319977  78.  0.
 -40.2319984  78.  0.
 -35.4319992  78.  0.
 -30.6319981  78.  0.
 -25.8319988  78.  0.
 -21.0319977  78.  0.
 -16.2319984  78.  0.
 -11.4319983  78.  0.
 -6.63199854  78.  0.
 -1.83199859  78.  0.
  2.96800137  78.  0.
 -48.4959984  84.  0.
 -43.6959991  84.  0.
 -38.8959999  84.  0.
 -34.0959969  84.  0.
 -29.2959995  84.  0.
 -24.4959984  84.  0.
 -19.6959991  84.  0.
 -14.895999  84.  0.
 -10.0959988  84.  0.
 -5.29599953  84.  0.
 -0.495999455  84.  0.
 -51.9599991  90.  0.
 -47.1599998  90.  0.
 -42.3600006  90.  0.
 -37.5599976  90.  0.
 -32.7599983  90.  0.
 -27.9599991  90.  0.
 -23.1599998  90.  0.
 -18.3600006  90.  0.
 -13.5599995  90.  0.
 -8.76000023  90.  0.
 -3.96000004  90.  0.
 -55.4239998  96.  0.
 -50.6240005  96.  0.
 -45.8240013  96.  0.
 -41.0239983  96.  0.
 -36.223999  96.  0.
 -31.4239998  96.  0.
 -26.6240005  96.  0.
 -21.8240013  96.  0.
 -17.0240002  96.  0.
 -12.2240009  96.  0.
 -7.42400074  96.  0.
 -58.8880005  102.  0.
 -54.0880013  102.  0.
 -49.288002  102.  0.
 -44.487999  102.  0.
 -39.6879997  102.  0.
 -34.8880005  102.  0.
 -30.0880013  102.  0.
 -25.288002  102.  0.
 -20.4880009  102.  0.
 -15.6880016  102.  0.
 -10.8880014  102.  0.
 -62.3519974  108.  0.
 -57.5519981  108.  0.
 -52.7519989  108.  0.
 -47.9519958  108.  0.
 -43.1519966  108.  0.
 -38.3519974  108.  0.
 -33.5519981  108.  0.
 -28.7519989  108.  0.
 -23.9519978  108.  0.
 -19.1519985  108.  0.
 -14.3519983  108.  0.
 -65.8160019  114.  0.
 -61.0160027  114.  0.
 -56.2160034  114.  0.
 -51.4160004  114.  0.
 -46.6160011  114.  0.
 -41.8160019  114.  0.
 -37.0160027  114.  0.
 -32.2160034  114.  0.
 -27.4160023  114.  0.
 -22.616003  114.  0.
 -17.8160038  114.  0.
 -69.2799988  120.  0.
 -64.4799957  120.  0.
 -59.6800003  120.  0.
 -54.8799973  120.  0.
 -50.079998  120.  0.
 -45.2799988  120.  0.
 -40.4799995  120.  0.
 -35.6800003  120.  0.
 -30.8799992  120.  0.
 -26.0799999  120.  0.
 -21.2800007  120.  0.
CELLS     200    1000
          4         16         17         28         27
          4         17         18         29         28
          4         18         19         30         29
          4         19         20         31         30
          4         20         21         32         31
          4         21         22         33         32
          4         22         23         34         33
          4         23         24         35         34
          4         24         25         36         35
          4         25         26         37         36
          4         27         28         39         38
          4         28         29         40         39
          4         29         30         41         40
          4         30         31         42         41
          4         31         32         43         42
          4         32         33         44         43
          4         33         34         45         44
          4         34         35         46         45
          4         35         36         47         46
          4         36         37         48         47
          4         38         39         50         49
          4         39         40         51         50
          4         40         41         52         51
          4         41         42         53         52
          4         42         43         54         53
          4         43         44         55         54
          4         44         45         56         55
          4         45         46         57         56
          4         46         47         58         57
          4         47         48         59         58
          4         49         50         61         60
          4         50         51         62         61
          4         51         52         63         62
          4         52         53         64         63
          4         53         54         65         64
          4         54         55         66         65
          4         55         56         67         66
          4         56         57         68         67
          4         57         58         69         68
          4         58         59         70         69
          4         60         61         72         71
          4         61         62         73         72
          4         62         63         74         73
          4         63         64         75         74
          4         64         65         76         75
          4         65         66         77         76
          4         66         67         78         77
          4         67         68         79         78
          4         68         69         80         79
          4         69         70         81         80
          4         71         72         83         82
          4         72         73         84         83
          4         73         74         85         84
          4         74         75         86         85
          4         75         76         87         86
          4         76         77         88         87
          4         77         78         89         88
          4         78         79         90         89
          4         79         80         91         90
          4         80         81         92         91
          4         82         83         94         93
          4         83         84         95         94
          4         84         85         96         95
          4         85         86         97         96
          4         86         87         98         97
          4         87         88         99         98
          4         88         89        100         99
          4         89         90        101        100
          4         90         91        102        101
          4         91         92        103        102
          4         93         94        105        104
          4         94         95        106        105
          4         95         96        107        106
          4         96         97        108        107
          4         97         98        109        108
          4         98         99        110        109
          4         99        100        111        110
          4        100        101        112        111
          4        101        102        113        112
          4        102        103        114        113
          4        104        105        116        115
          4        105        106        117        116
          4        106        107        118        117
          4        107        108        119        118
          4        108        109        120        119
          4        109        110        121        120
          4        110        111        122        121
          4        111        112        123        122
          4        112        113        124        123
          4        113        114        125        124
          4        115        116        127        126
          4        116        117        128        127
          4        117        118        129        128
          4        118        119        130        129
          4        119        120        131        130
          4        120        121        132        131
          4        121        122        133        132
          4        122        123        134        133
          4        123        124        135        134
          4        124        125        136        135
          4        126        127        138        137
          4        127        128        139        138
          4        128        129        140        139
          4        129        130        141        140
          4        130        131        142        141
          4        131        132        143        142
          4        132        133        144        143
          4        133        134        145        144
          4        134        135        146        145
          4        135        136        147        146
          4        137        138        149        148
          4        138        139        150        149
          4        139        140        151        150
          4        140        141        152        151
          4        141        142        153        152
          4        142        143        154        153
          4        143        144        155        154
          4        144        145        156        155
          4        145        146        157        156
          4        146        147        158        157
          4        148        149        160        159
          4        149        150        161        160
          4        150        151        162        161
          4        151        152        163        162
          4        152        153        164        163
          4        153        154        165        164
          4        154        155        166        165
          4        155        156        167        166
          4        156        157        168        167
          4        157        158        169        168
          4        159        160        171        170
          4        160        161        172        171
          4        161        162        173        172
          4        162        163        174        173
          4        163        164        175        174
          4        164        165        176        175
          4        165        166        177        176
          4        166        167        178        177
          4        167        168        179        178
          4        168        169        180        179
          4        170        171        182        181
          4        171        172        183        182
          4        172        173        184        183
          4        173        174        185        184
          4        174        175        186        185
          4        175        176        187        186
          4        176        177        188        187
          4        177        178        189        188
          4        178        179        190        189
          4        179        180        191        190
          4        181        182        193        192
          4        182        183        194        193
          4        183        184        195        194
          4        184        185        196        195
          4        185        186        197        196
          4        186        187        198        197
          4        187        188        199        198
          4        188        189        200        199
          4        189        190        201        200
          4        190        191        202        201
          4        192        193        204        203
          4        193        194        205        204
          4        194        195        206        205
          4        195        196        207        206
          4        196        197        208        207
          4        197        198        209        208
          4        198        199        210        209
          4        199        200        211        210
          4        200        201        212        211
          4        201        202        213        212
          4        203        204        215        214
          4        204        205        216        215
          4        205        206        217        216
          4        206        207        218        217
          4        207        208        219        218
          4        208        209        220        219
          4        209        210        221        220
          4        210        211        222        221
          4        211        212        223        222
          4        212        213        224        223
          4        214        215        226        225
          4        215        216        227        226
          4        216        217        228        227
          4        217        218        229        228
          4        218        219        230        229
          4        219        220        231        230
          4        220        221        232        231
          4        221        222        233        232
          4        222        223        234        233
          4        223        224        235        234
          4        225        226        237        236
          4        226        227        238        237
          4        227        228        239        238
          4        228        229        240        239
          4        229        230        241        240
          4        230        231        242        241
          4        231        232        243        242
          4        232        233        244        243
          4        233        234        245        244
          4        234        235        246        245
CELL_TYPES      200
       9
       9
       9
       9
       9
       9
       9
       9
       9
       9
       9
       9
       9
       9
       9
       9
       9
       9
       9
       9
       9
       9
       9
       9
       9
       9
       9
       9
       9
       9
       9
       9
       9
       9
       9
       9
       9
       9
       9
       9
       9
       9
       9
       9
       9
       9
       9
       9
       9
       9
       9
       9
       9
       9
       9
       9
       9
       9
       9
       9
       9
       9
       9
       9
       9
       9
       9
       9
       9
       9
       9
       9
       9
       9
       9
       9
       9
       9
       9
       9
       9
       9
       9
       9
       9
       9
       9
       9
       9
       9
       9
       9
       9
       9
       9
       9
       9
       9
       9
       9
       9
       9
       9
       9
       9
       9
       9
       9
       9
       9
       9
       9
       9
       9
       9
       9
       9
       9
       9
       9
       9
       9
       9
       9
       9
       9
       9
       9
       9
       9
       9
       9
       9
       9
       9
       9
       9
       9
       9
       9
       9
       9
       9
       9
       9
       9
       9
       9
       9
       9
       9
       9
       9
       9
       9
       9
       9
       9
       9
       9
       9
       9
       9
       9
       9
       9
       9
       9
       9
       9
       9
       9
       9
       9
       9
       9
       9
       9
       9
       9
       9
       9
       9
       9
       9
       9
       9
       9
       9
       9
       9
       9
       9
       9
       9
       9
       9
       9
       9
       9
POINT_DATA       31
VECTORS Disp_xyz float
    0.000000E+00    0.000000E+00   -0.158969E+00
    0.000000E+00    0.000000E+00   -0.158969E+00
    0.000000E+00    0.000000E+00   -0.158969E+00
    0.160792E-01   -0.353590E-01    0.106031E+00
    0.131317E-01   -0.229230E-01    0.286784E-01
    0.125807E-01   -0.162098E-01   -0.412545E-01
    0.254574E-01   -0.419879E-01    0.624928E+00
    0.241351E-01   -0.388156E-01    0.473885E+00
    0.239535E-01   -0.346651E-01    0.326922E+00
    0.288673E-01   -0.435607E-01    0.121613E+01
    0.283655E-01   -0.427087E-01    0.104206E+01
    0.283105E-01   -0.421570E-01    0.867479E+00
    0.294059E-01   -0.431837E-01    0.181673E+01
    0.294134E-01   -0.433047E-01    0.163931E+01
    0.293752E-01   -0.431980E-01    0.146111E+01
    0.000000E+00    0.000000E+00   -0.158969E+00
    0.000000E+00    0.000000E+00   -0.158969E+00
    0.000000E+00    0.000000E+00   -0.158969E+00
   -0.160787E-01    0.353595E-01    0.101608E+00
   -0.131312E-01    0.229232E-01    0.244840E-01
   -0.125803E-01    0.162097E-01   -0.442292E-01
   -0.254561E-01    0.419888E-01    0.619951E+00
   -0.241338E-01    0.388162E-01    0.469701E+00
   -0.239522E-01    0.346654E-01    0.325645E+00
   -0.288655E-01    0.435620E-01    0.121165E+01
   -0.283637E-01    0.427096E-01    0.103887E+01
   -0.283087E-01    0.421575E-01    0.866031E+00
   -0.294035E-01    0.431854E-01    0.181582E+01
   -0.294110E-01    0.433060E-01    0.163837E+01
   -0.293728E-01    0.431989E-01    0.146089E+01
    0.000000E+00    0.000000E+00   -0.158969E+00
