# vtk DataFile Version 1.0
Geometric Data
ASCII
 
DATASET UNSTRUCTURED_GRID
POINTS        31 float
  6.  0.  3.
  24.  0.  3.
  42.  0.  3.
 -11.3210001  30.  3.
  6.6789999  30.  3.
  24.6790009  30.  3.
 -28.6410007  60.  3.
 -10.6409998  60.  3.
  7.35900021  60.  3.
 -45.9620018  90.  3.
 -27.9619999  90.  3.
 -9.96199989  90.  3.
 -63.2820015  120.  3.
 -45.2820015  120.  3.
 -27.2819996  120.  3.
  6.  0. -3.
  24.  0. -3.
  42.  0. -3.
 -11.3210001  30. -3.
  6.6789999  30. -3.
  24.6790009  30. -3.
 -28.6410007  60. -3.
 -10.6409998  60. -3.
  7.35900021  60. -3.
 -45.9620018  90. -3.
 -27.9619999  90. -3.
 -9.96199989  90. -3.
 -63.2820015  120. -3.
 -45.2820015  120. -3.
 -27.2819996  120. -3.
  9.  0.  0.
 
CELLS       83       325
          4         15          0          3         18
          4         18          3          6         21
          4         21          6          9         24
          4         24          9         12         27
          4         16          1          4         19
          4         19          4          7         22
          4         22          7         10         25
          4         25         10         13         28
          4         17          2          5         20
          4         20          5          8         23
          4         23          8         11         26
          4         26         11         14         29
          4         15          0          1         16
          4         16          1          2         17
          4         18          3          4         19
          4         19          4          5         20
          4         21          6          7         22
          4         22          7          8         23
          4         24          9         10         25
          4         25         10         11         26
          4         27         12         13         28
          4         28         13         14         29
          4          0          1          4          3
          4          3          4          7          6
          4          6          7         10          9
          4          9         10         13         12
          4          1          2          5          4
          4          4          5          8          7
          4          7          8         11         10
          4         10         11         14         13
          4         15         16         19         18
          4         18         19         22         21
          4         21         22         25         24
          4         24         25         28         27
          4         16         17         20         19
          4         19         20         23         22
          4         22         23         26         25
          4         25         26         29         28
          2          0         15
          2          1         16
          2          2         17
          2          3         18
          2          4         19
          2          5         20
          2          6         21
          2          7         22
          2          8         23
          2          9         24
          2         10         25
          2         11         26
          2         12         27
          2         13         28
          2         14         29
          2          0          3
          2          3          6
          2          6          9
          2          9         12
          2         15         18
          2         18         21
          2         21         24
          2         24         27
          2          1          4
          2          4          7
          2          7         10
          2         10         13
          2         16         19
          2         19         22
          2         22         25
          2         25         28
          2          2          5
          2          5          8
          2          8         11
          2         11         14
          2         17         20
          2         20         23
          2         23         26
          2         26         29
          2          0         30
          2          1         30
          2          2         30
          2         15         30
          2         16         30
          2         17         30
CELL_TYPES       83
       9
       9
       9
       9
       9
       9
       9
       9
       9
       9
       9
       9
       9
       9
       9
       9
       9
       9
       9
       9
       9
       9
       9
       9
       9
       9
       9
       9
       9
       9
       9
       9
       9
       9
       9
       9
       9
       9
       3
       3
       3
       3
       3
       3
       3
       3
       3
       3
       3
       3
       3
       3
       3
       3
       3
       3
       3
       3
       3
       3
       3
       3
       3
       3
       3
       3
       3
       3
       3
       3
       3
       3
       3
       3
       3
       3
       3
       3
       3
       3
       3
       3
       3
POINT_DATA       31
VECTORS Disp_xyz float
    0.000000E+00    0.000000E+00   -0.213974E+00
    0.000000E+00    0.000000E+00   -0.213974E+00
    0.000000E+00    0.000000E+00   -0.213974E+00
    0.270847E-01   -0.456632E-01    0.154189E+00
    0.210321E-01   -0.280771E-01    0.185798E-01
    0.178532E-01   -0.176314E-01   -0.887408E-01
    0.432692E-01   -0.542870E-01    0.877477E+00
    0.402398E-01   -0.490505E-01    0.618183E+00
    0.385516E-01   -0.423371E-01    0.379355E+00
    0.497767E-01   -0.562844E-01    0.171117E+01
    0.485227E-01   -0.546801E-01    0.140688E+01
    0.478441E-01   -0.533265E-01    0.111166E+01
    0.512024E-01   -0.554389E-01    0.255918E+01
    0.510321E-01   -0.556404E-01    0.224854E+01
    0.507165E-01   -0.552897E-01    0.193999E+01
    0.000000E+00    0.000000E+00   -0.213974E+00
    0.000000E+00    0.000000E+00   -0.213974E+00
    0.000000E+00    0.000000E+00   -0.213974E+00
   -0.270841E-01    0.456638E-01    0.146177E+00
   -0.210316E-01    0.280773E-01    0.170370E-01
   -0.178528E-01    0.176313E-01   -0.889262E-01
   -0.432678E-01    0.542881E-01    0.868243E+00
   -0.402383E-01    0.490512E-01    0.616212E+00
   -0.385501E-01    0.423374E-01    0.379475E+00
   -0.497746E-01    0.562860E-01    0.170249E+01
   -0.485206E-01    0.546812E-01    0.140446E+01
   -0.478420E-01    0.533272E-01    0.111134E+01
   -0.511995E-01    0.554409E-01    0.255702E+01
   -0.510293E-01    0.556419E-01    0.224763E+01
   -0.507136E-01    0.552908E-01    0.194023E+01
    0.000000E+00    0.000000E+00   -0.213974E+00
