# vtk DataFile Version 1.0
Geometric Data
ASCII
 
DATASET UNSTRUCTURED_GRID
POINTS        31 float
  6.  0.  3.
  24.  0.  3.
  42.  0.  3.
  23.3209991  30.  3.
  41.3209991  30.  3.
  59.3209991  30.  3.
  40.6409988  60.  3.
  58.6409988  60.  3.
  76.6409988  60.  3.
  57.9620018  90.  3.
  75.961998  90.  3.
  93.961998  90.  3.
  75.2819977  120.  3.
  93.2819977  120.  3.
  111.281998  120.  3.
  6.  0. -3.
  24.  0. -3.
  42.  0. -3.
  23.3209991  30. -3.
  41.3209991  30. -3.
  59.3209991  30. -3.
  40.6409988  60. -3.
  58.6409988  60. -3.
  76.6409988  60. -3.
  57.9620018  90. -3.
  75.961998  90. -3.
  93.961998  90. -3.
  75.2819977  120. -3.
  93.2819977  120. -3.
  111.281998  120. -3.
  9.  0.  0.
 
CELLS       83       325
          4         15          0          3         18
          4         18          3          6         21
          4         21          6          9         24
          4         24          9         12         27
          4         16          1          4         19
          4         19          4          7         22
          4         22          7         10         25
          4         25         10         13         28
          4         17          2          5         20
          4         20          5          8         23
          4         23          8         11         26
          4         26         11         14         29
          4         15          0          1         16
          4         16          1          2         17
          4         18          3          4         19
          4         19          4          5         20
          4         21          6          7         22
          4         22          7          8         23
          4         24          9         10         25
          4         25         10         11         26
          4         27         12         13         28
          4         28         13         14         29
          4          0          1          4          3
          4          3          4          7          6
          4          6          7         10          9
          4          9         10         13         12
          4          1          2          5          4
          4          4          5          8          7
          4          7          8         11         10
          4         10         11         14         13
          4         15         16         19         18
          4         18         19         22         21
          4         21         22         25         24
          4         24         25         28         27
          4         16         17         20         19
          4         19         20         23         22
          4         22         23         26         25
          4         25         26         29         28
          2          0         15
          2          1         16
          2          2         17
          2          3         18
          2          4         19
          2          5         20
          2          6         21
          2          7         22
          2          8         23
          2          9         24
          2         10         25
          2         11         26
          2         12         27
          2         13         28
          2         14         29
          2          0          3
          2          3          6
          2          6          9
          2          9         12
          2         15         18
          2         18         21
          2         21         24
          2         24         27
          2          1          4
          2          4          7
          2          7         10
          2         10         13
          2         16         19
          2         19         22
          2         22         25
          2         25         28
          2          2          5
          2          5          8
          2          8         11
          2         11         14
          2         17         20
          2         20         23
          2         23         26
          2         26         29
          2          0         30
          2          1         30
          2          2         30
          2         15         30
          2         16         30
          2         17         30
CELL_TYPES       83
       9
       9
       9
       9
       9
       9
       9
       9
       9
       9
       9
       9
       9
       9
       9
       9
       9
       9
       9
       9
       9
       9
       9
       9
       9
       9
       9
       9
       9
       9
       9
       9
       9
       9
       9
       9
       9
       9
       3
       3
       3
       3
       3
       3
       3
       3
       3
       3
       3
       3
       3
       3
       3
       3
       3
       3
       3
       3
       3
       3
       3
       3
       3
       3
       3
       3
       3
       3
       3
       3
       3
       3
       3
       3
       3
       3
       3
       3
       3
       3
       3
       3
       3
POINT_DATA       31
VECTORS Disp_xyz float
    0.000000E+00    0.289404E+00    0.000000E+00
    0.000000E+00    0.289404E+00    0.000000E+00
    0.000000E+00    0.289404E+00    0.000000E+00
   -0.894082E-01    0.327149E+00   -0.321153E+01
   -0.163172E+00    0.238295E+00   -0.246278E+01
   -0.227299E+00    0.144601E+00   -0.131595E+01
   -0.343268E+00    0.201570E+00   -0.489509E+01
   -0.399380E+00    0.105732E+00   -0.260620E+01
   -0.454625E+00    0.189347E-01   -0.756136E-02
   -0.551756E+00    0.466641E-01   -0.369123E+01
   -0.578348E+00   -0.478129E-02   -0.104093E+00
   -0.610345E+00   -0.543267E-01    0.356985E+01
   -0.651705E+00   -0.341817E-01   -0.195031E+00
   -0.646319E+00   -0.514677E-01    0.396988E+01
   -0.639351E+00   -0.610761E-01    0.777629E+01
    0.000000E+00   -0.289404E+00    0.000000E+00
    0.000000E+00   -0.289404E+00    0.000000E+00
    0.000000E+00   -0.289404E+00    0.000000E+00
    0.894177E-01   -0.327147E+00   -0.317174E+01
    0.163182E+00   -0.238298E+00   -0.243362E+01
    0.227310E+00   -0.144613E+00   -0.130451E+01
    0.343293E+00   -0.201574E+00   -0.479699E+01
    0.399406E+00   -0.105745E+00   -0.256860E+01
    0.454651E+00   -0.189571E-01    0.129651E-01
    0.551797E+00   -0.466771E-01   -0.356045E+01
    0.578389E+00    0.475940E-02   -0.119807E+00
    0.610386E+00    0.542961E-01    0.345237E+01
    0.651760E+00    0.341602E-01   -0.145037E+00
    0.646375E+00    0.514374E-01    0.385346E+01
    0.639407E+00    0.610368E-01    0.774632E+01
    0.000000E+00    0.000000E+00    0.000000E+00
