# vtk DataFile Version 1.0
Geometric Data
ASCII
 
DATASET UNSTRUCTURED_GRID
POINTS        31 float
  6.  0.  3.
  24.  0.  3.
  42.  0.  3.
  23.3209991  30.  3.
  41.3209991  30.  3.
  59.3209991  30.  3.
  40.6409988  60.  3.
  58.6409988  60.  3.
  76.6409988  60.  3.
  57.9620018  90.  3.
  75.961998  90.  3.
  93.961998  90.  3.
  75.2819977  120.  3.
  93.2819977  120.  3.
  111.281998  120.  3.
  6.  0. -3.
  24.  0. -3.
  42.  0. -3.
  23.3209991  30. -3.
  41.3209991  30. -3.
  59.3209991  30. -3.
  40.6409988  60. -3.
  58.6409988  60. -3.
  76.6409988  60. -3.
  57.9620018  90. -3.
  75.961998  90. -3.
  93.961998  90. -3.
  75.2819977  120. -3.
  93.2819977  120. -3.
  111.281998  120. -3.
  9.  0.  0.
 
CELLS       83       325
          4         15          0          3         18
          4         18          3          6         21
          4         21          6          9         24
          4         24          9         12         27
          4         16          1          4         19
          4         19          4          7         22
          4         22          7         10         25
          4         25         10         13         28
          4         17          2          5         20
          4         20          5          8         23
          4         23          8         11         26
          4         26         11         14         29
          4         15          0          1         16
          4         16          1          2         17
          4         18          3          4         19
          4         19          4          5         20
          4         21          6          7         22
          4         22          7          8         23
          4         24          9         10         25
          4         25         10         11         26
          4         27         12         13         28
          4         28         13         14         29
          4          0          1          4          3
          4          3          4          7          6
          4          6          7         10          9
          4          9         10         13         12
          4          1          2          5          4
          4          4          5          8          7
          4          7          8         11         10
          4         10         11         14         13
          4         15         16         19         18
          4         18         19         22         21
          4         21         22         25         24
          4         24         25         28         27
          4         16         17         20         19
          4         19         20         23         22
          4         22         23         26         25
          4         25         26         29         28
          2          0         15
          2          1         16
          2          2         17
          2          3         18
          2          4         19
          2          5         20
          2          6         21
          2          7         22
          2          8         23
          2          9         24
          2         10         25
          2         11         26
          2         12         27
          2         13         28
          2         14         29
          2          0          3
          2          3          6
          2          6          9
          2          9         12
          2         15         18
          2         18         21
          2         21         24
          2         24         27
          2          1          4
          2          4          7
          2          7         10
          2         10         13
          2         16         19
          2         19         22
          2         22         25
          2         25         28
          2          2          5
          2          5          8
          2          8         11
          2         11         14
          2         17         20
          2         20         23
          2         23         26
          2         26         29
          2          0         30
          2          1         30
          2          2         30
          2         15         30
          2         16         30
          2         17         30
CELL_TYPES       83
       9
       9
       9
       9
       9
       9
       9
       9
       9
       9
       9
       9
       9
       9
       9
       9
       9
       9
       9
       9
       9
       9
       9
       9
       9
       9
       9
       9
       9
       9
       9
       9
       9
       9
       9
       9
       9
       9
       3
       3
       3
       3
       3
       3
       3
       3
       3
       3
       3
       3
       3
       3
       3
       3
       3
       3
       3
       3
       3
       3
       3
       3
       3
       3
       3
       3
       3
       3
       3
       3
       3
       3
       3
       3
       3
       3
       3
       3
       3
       3
       3
       3
       3
POINT_DATA       31
VECTORS Disp_xyz float
    0.000000E+00    0.000000E+00   -0.161547E+00
    0.000000E+00    0.000000E+00   -0.161547E+00
    0.000000E+00    0.000000E+00   -0.161547E+00
   -0.113660E-01   -0.198369E-01   -0.188809E-01
   -0.979486E-02   -0.255567E-01    0.352041E-01
   -0.105382E-01   -0.369716E-01    0.851399E-01
   -0.181836E-01   -0.399642E-01    0.381011E+00
   -0.169500E-01   -0.432938E-01    0.486119E+00
   -0.171958E-01   -0.460951E-01    0.588088E+00
   -0.198510E-01   -0.480540E-01    0.940674E+00
   -0.192089E-01   -0.481909E-01    0.106018E+01
   -0.191574E-01   -0.488750E-01    0.117285E+01
   -0.194902E-01   -0.491309E-01    0.154155E+01
   -0.192038E-01   -0.490437E-01    0.165734E+01
   -0.190148E-01   -0.489613E-01    0.177098E+01
    0.000000E+00    0.000000E+00   -0.161547E+00
    0.000000E+00    0.000000E+00   -0.161547E+00
    0.000000E+00    0.000000E+00   -0.161547E+00
    0.113675E-01    0.198372E-01   -0.239940E-01
    0.979652E-02    0.255561E-01    0.311996E-01
    0.105401E-01    0.369697E-01    0.829212E-01
    0.181875E-01    0.399636E-01    0.377045E+00
    0.169539E-01    0.432918E-01    0.482267E+00
    0.171998E-01    0.460918E-01    0.585826E+00
    0.198571E-01    0.480520E-01    0.937070E+00
    0.192149E-01    0.481877E-01    0.105592E+01
    0.191634E-01    0.488705E-01    0.117039E+01
    0.194984E-01    0.491277E-01    0.154002E+01
    0.192120E-01    0.490392E-01    0.165635E+01
    0.190230E-01    0.489556E-01    0.177091E+01
    0.000000E+00    0.000000E+00   -0.161547E+00
