# vtk DataFile Version 1.0
Geometric Data
ASCII
 
DATASET UNSTRUCTURED_GRID
POINTS       247 float
  0.  0.  0.
  12.  0.  0.
  24.  0.  0.
  36.  0.  0.
  48.  0.  0.
  36.  0.  0.
  24.  0.  0.
  12.  0.  0.
  69.2799988  120.  0.
  81.2799988  120.  0.
  93.2799988  120.  0.
  105.279999  120.  0.
  117.279999  120.  0.
  105.279999  120.  0.
  93.2799988  120.  0.
  81.2799988  120.  0.
  0.  0.  0.
  4.79999971  0.  0.
  9.59999943  0.  0.
  14.3999996  0.  0.
  19.1999989  0.  0.
  24.  0.  0.
  28.7999992  0.  0.
  33.5999985  0.  0.
  38.3999977  0.  0.
  43.2000008  0.  0.
  48.  0.  0.
  3.46399999  6.  0.
  8.26399994  6.  0.
  13.0640001  6.  0.
  17.8640003  6.  0.
  22.6639996  6.  0.
  27.4639988  6.  0.
  32.2639999  6.  0.
  37.0639992  6.  0.
  41.8639984  6.  0.
  46.6639977  6.  0.
  51.4640007  6.  0.
  6.92799997  12.  0.
  11.7279997  12.  0.
  16.5279999  12.  0.
  21.3279991  12.  0.
  26.1280003  12.  0.
  30.9279995  12.  0.
  35.7280006  12.  0.
  40.5279999  12.  0.
  45.3279991  12.  0.
  50.1279984  12.  0.
  54.9279976  12.  0.
  10.3920002  18.  0.
  15.1920004  18.  0.
  19.9920006  18.  0.
  24.7919998  18.  0.
  29.5919991  18.  0.
  34.3919983  18.  0.
  39.1920013  18.  0.
  43.9920006  18.  0.
  48.7919998  18.  0.
  53.5919991  18.  0.
  58.3919983  18.  0.
  13.8559999  24.  0.
  18.6560001  24.  0.
  23.4559994  24.  0.
  28.2560005  24.  0.
  33.0559998  24.  0.
  37.855999  24.  0.
  42.6559982  24.  0.
  47.4559975  24.  0.
  52.2560005  24.  0.
  57.0559998  24.  0.
  61.855999  24.  0.
  17.3199997  30.  0.
  22.1199989  30.  0.
  26.9200001  30.  0.
  31.7199993  30.  0.
  36.5200005  30.  0.
  41.3199997  30.  0.
  46.1199989  30.  0.
  50.9199982  30.  0.
  55.7199974  30.  0.
  60.5200005  30.  0.
  65.3199997  30.  0.
  20.7840004  36.  0.
  25.5839996  36.  0.
  30.3840008  36.  0.
  35.1840019  36.  0.
  39.9840012  36.  0.
  44.7840004  36.  0.
  49.5839996  36.  0.
  54.3839989  36.  0.
  59.1839981  36.  0.
  63.9840012  36.  0.
  68.7839966  36.  0.
  24.2479992  42.  0.
  29.0479984  42.  0.
  33.8479996  42.  0.
  38.6479988  42.  0.
  43.447998  42.  0.
  48.2479973  42.  0.
  53.0480003  42.  0.
  57.8479996  42.  0.
  62.6479988  42.  0.
  67.447998  42.  0.
  72.2480011  42.  0.
  27.7119999  48.  0.
  32.512001  48.  0.
  37.3120003  48.  0.
  42.1119995  48.  0.
  46.9119987  48.  0.
  51.711998  48.  0.
  56.512001  48.  0.
  61.3120003  48.  0.
  66.1119995  48.  0.
  70.9120026  48.  0.
  75.711998  48.  0.
  31.1759987  54.  0.
  35.9759979  54.  0.
  40.7759972  54.  0.
  45.5760002  54.  0.
  50.3759995  54.  0.
  55.1759987  54.  0.
  59.9759979  54.  0.
  64.776001  54.  0.
  69.5759964  54.  0.
  74.3759995  54.  0.
  79.1759949  54.  0.
  34.6399994  60.  0.
  39.4399986  60.  0.
  44.2399979  60.  0.
  49.0400009  60.  0.
  53.8400002  60.  0.
  58.6399994  60.  0.
  63.4399986  60.  0.
  68.2399979  60.  0.
  73.0400009  60.  0.
  77.8399963  60.  0.
  82.6399994  60.  0.
  38.1040001  66.  0.
  42.9039993  66.  0.
  47.7039986  66.  0.
  52.5040016  66.  0.
  57.3040009  66.  0.
  62.1040001  66.  0.
  66.9039993  66.  0.
  71.7040024  66.  0.
  76.5039978  66.  0.
  81.3040009  66.  0.
  86.1039963  66.  0.
  41.5680008  72.  0.
  46.368  72.  0.
  51.1679993  72.  0.
  55.9680023  72.  0.
  60.7680016  72.  0.
  65.5680008  72.  0.
  70.3680038  72.  0.
  75.1679993  72.  0.
  79.9680023  72.  0.
  84.7679977  72.  0.
  89.5680008  72.  0.
  45.0319977  78.  0.
  49.8319969  78.  0.
  54.6319962  78.  0.
  59.4319992  78.  0.
  64.2319946  78.  0.
  69.0319977  78.  0.
  73.8320007  78.  0.
  78.6319962  78.  0.
  83.4319992  78.  0.
  88.2319946  78.  0.
  93.0319977  78.  0.
  48.4959984  84.  0.
  53.2959976  84.  0.
  58.0959969  84.  0.
  62.8959999  84.  0.
  67.6959991  84.  0.
  72.4959946  84.  0.
  77.2959976  84.  0.
  82.0960007  84.  0.
  86.8959961  84.  0.
  91.6959991  84.  0.
  96.4959946  84.  0.
  51.9599991  90.  0.
  56.7599983  90.  0.
  61.5599976  90.  0.
  66.3600006  90.  0.
  71.159996  90.  0.
  75.9599991  90.  0.
  80.7600021  90.  0.
  85.5599976  90.  0.
  90.3600006  90.  0.
  95.159996  90.  0.
  99.9599991  90.  0.
  55.4239998  96.  0.
  60.223999  96.  0.
  65.0240021  96.  0.
  69.8239975  96.  0.
  74.6240005  96.  0.
  79.423996  96.  0.
  84.223999  96.  0.
  89.0240021  96.  0.
  93.8239975  96.  0.
  98.6240005  96.  0.
  103.423996  96.  0.
  58.8880005  102.  0.
  63.6879997  102.  0.
  68.487999  102.  0.
  73.288002  102.  0.
  78.0879974  102.  0.
  82.8880005  102.  0.
  87.6880035  102.  0.
  92.487999  102.  0.
  97.288002  102.  0.
  102.087997  102.  0.
  106.888  102.  0.
  62.3519974  108.  0.
  67.1520004  108.  0.
  71.9519958  108.  0.
  76.7519989  108.  0.
  81.5519943  108.  0.
  86.3519974  108.  0.
  91.1520004  108.  0.
  95.9519958  108.  0.
  100.751999  108.  0.
  105.551994  108.  0.
  110.351997  108.  0.
  65.8160019  114.  0.
  70.6160049  114.  0.
  75.4160004  114.  0.
  80.2160034  114.  0.
  85.0159988  114.  0.
  89.8160019  114.  0.
  94.6160049  114.  0.
  99.4160004  114.  0.
  104.216003  114.  0.
  109.015999  114.  0.
  113.816002  114.  0.
  69.2799988  120.  0.
  74.0800018  120.  0.
  78.8799973  120.  0.
  83.6800003  120.  0.
  88.4799957  120.  0.
  93.2799988  120.  0.
  98.0800018  120.  0.
  102.879997  120.  0.
  107.68  120.  0.
  112.479996  120.  0.
  117.279999  120.  0.
CELLS     200    1000
          4         16         17         28         27
          4         17         18         29         28
          4         18         19         30         29
          4         19         20         31         30
          4         20         21         32         31
          4         21         22         33         32
          4         22         23         34         33
          4         23         24         35         34
          4         24         25         36         35
          4         25         26         37         36
          4         27         28         39         38
          4         28         29         40         39
          4         29         30         41         40
          4         30         31         42         41
          4         31         32         43         42
          4         32         33         44         43
          4         33         34         45         44
          4         34         35         46         45
          4         35         36         47         46
          4         36         37         48         47
          4         38         39         50         49
          4         39         40         51         50
          4         40         41         52         51
          4         41         42         53         52
          4         42         43         54         53
          4         43         44         55         54
          4         44         45         56         55
          4         45         46         57         56
          4         46         47         58         57
          4         47         48         59         58
          4         49         50         61         60
          4         50         51         62         61
          4         51         52         63         62
          4         52         53         64         63
          4         53         54         65         64
          4         54         55         66         65
          4         55         56         67         66
          4         56         57         68         67
          4         57         58         69         68
          4         58         59         70         69
          4         60         61         72         71
          4         61         62         73         72
          4         62         63         74         73
          4         63         64         75         74
          4         64         65         76         75
          4         65         66         77         76
          4         66         67         78         77
          4         67         68         79         78
          4         68         69         80         79
          4         69         70         81         80
          4         71         72         83         82
          4         72         73         84         83
          4         73         74         85         84
          4         74         75         86         85
          4         75         76         87         86
          4         76         77         88         87
          4         77         78         89         88
          4         78         79         90         89
          4         79         80         91         90
          4         80         81         92         91
          4         82         83         94         93
          4         83         84         95         94
          4         84         85         96         95
          4         85         86         97         96
          4         86         87         98         97
          4         87         88         99         98
          4         88         89        100         99
          4         89         90        101        100
          4         90         91        102        101
          4         91         92        103        102
          4         93         94        105        104
          4         94         95        106        105
          4         95         96        107        106
          4         96         97        108        107
          4         97         98        109        108
          4         98         99        110        109
          4         99        100        111        110
          4        100        101        112        111
          4        101        102        113        112
          4        102        103        114        113
          4        104        105        116        115
          4        105        106        117        116
          4        106        107        118        117
          4        107        108        119        118
          4        108        109        120        119
          4        109        110        121        120
          4        110        111        122        121
          4        111        112        123        122
          4        112        113        124        123
          4        113        114        125        124
          4        115        116        127        126
          4        116        117        128        127
          4        117        118        129        128
          4        118        119        130        129
          4        119        120        131        130
          4        120        121        132        131
          4        121        122        133        132
          4        122        123        134        133
          4        123        124        135        134
          4        124        125        136        135
          4        126        127        138        137
          4        127        128        139        138
          4        128        129        140        139
          4        129        130        141        140
          4        130        131        142        141
          4        131        132        143        142
          4        132        133        144        143
          4        133        134        145        144
          4        134        135        146        145
          4        135        136        147        146
          4        137        138        149        148
          4        138        139        150        149
          4        139        140        151        150
          4        140        141        152        151
          4        141        142        153        152
          4        142        143        154        153
          4        143        144        155        154
          4        144        145        156        155
          4        145        146        157        156
          4        146        147        158        157
          4        148        149        160        159
          4        149        150        161        160
          4        150        151        162        161
          4        151        152        163        162
          4        152        153        164        163
          4        153        154        165        164
          4        154        155        166        165
          4        155        156        167        166
          4        156        157        168        167
          4        157        158        169        168
          4        159        160        171        170
          4        160        161        172        171
          4        161        162        173        172
          4        162        163        174        173
          4        163        164        175        174
          4        164        165        176        175
          4        165        166        177        176
          4        166        167        178        177
          4        167        168        179        178
          4        168        169        180        179
          4        170        171        182        181
          4        171        172        183        182
          4        172        173        184        183
          4        173        174        185        184
          4        174        175        186        185
          4        175        176        187        186
          4        176        177        188        187
          4        177        178        189        188
          4        178        179        190        189
          4        179        180        191        190
          4        181        182        193        192
          4        182        183        194        193
          4        183        184        195        194
          4        184        185        196        195
          4        185        186        197        196
          4        186        187        198        197
          4        187        188        199        198
          4        188        189        200        199
          4        189        190        201        200
          4        190        191        202        201
          4        192        193        204        203
          4        193        194        205        204
          4        194        195        206        205
          4        195        196        207        206
          4        196        197        208        207
          4        197        198        209        208
          4        198        199        210        209
          4        199        200        211        210
          4        200        201        212        211
          4        201        202        213        212
          4        203        204        215        214
          4        204        205        216        215
          4        205        206        217        216
          4        206        207        218        217
          4        207        208        219        218
          4        208        209        220        219
          4        209        210        221        220
          4        210        211        222        221
          4        211        212        223        222
          4        212        213        224        223
          4        214        215        226        225
          4        215        216        227        226
          4        216        217        228        227
          4        217        218        229        228
          4        218        219        230        229
          4        219        220        231        230
          4        220        221        232        231
          4        221        222        233        232
          4        222        223        234        233
          4        223        224        235        234
          4        225        226        237        236
          4        226        227        238        237
          4        227        228        239        238
          4        228        229        240        239
          4        229        230        241        240
          4        230        231        242        241
          4        231        232        243        242
          4        232        233        244        243
          4        233        234        245        244
          4        234        235        246        245
CELL_TYPES      200
       9
       9
       9
       9
       9
       9
       9
       9
       9
       9
       9
       9
       9
       9
       9
       9
       9
       9
       9
       9
       9
       9
       9
       9
       9
       9
       9
       9
       9
       9
       9
       9
       9
       9
       9
       9
       9
       9
       9
       9
       9
       9
       9
       9
       9
       9
       9
       9
       9
       9
       9
       9
       9
       9
       9
       9
       9
       9
       9
       9
       9
       9
       9
       9
       9
       9
       9
       9
       9
       9
       9
       9
       9
       9
       9
       9
       9
       9
       9
       9
       9
       9
       9
       9
       9
       9
       9
       9
       9
       9
       9
       9
       9
       9
       9
       9
       9
       9
       9
       9
       9
       9
       9
       9
       9
       9
       9
       9
       9
       9
       9
       9
       9
       9
       9
       9
       9
       9
       9
       9
       9
       9
       9
       9
       9
       9
       9
       9
       9
       9
       9
       9
       9
       9
       9
       9
       9
       9
       9
       9
       9
       9
       9
       9
       9
       9
       9
       9
       9
       9
       9
       9
       9
       9
       9
       9
       9
       9
       9
       9
       9
       9
       9
       9
       9
       9
       9
       9
       9
       9
       9
       9
       9
       9
       9
       9
       9
       9
       9
       9
       9
       9
       9
       9
       9
       9
       9
       9
       9
       9
       9
       9
       9
       9
       9
       9
       9
       9
       9
       9
POINT_DATA       31
VECTORS Disp_xyz float
    0.000000E+00    0.334172E+00    0.000000E+00
    0.000000E+00    0.334172E+00    0.000000E+00
    0.000000E+00    0.334172E+00    0.000000E+00
   -0.911362E-01    0.369417E+00   -0.362902E+01
   -0.165855E+00    0.276253E+00   -0.288498E+01
   -0.227961E+00    0.179516E+00   -0.174776E+01
   -0.362049E+00    0.233503E+00   -0.564066E+01
   -0.429712E+00    0.121568E+00   -0.327195E+01
   -0.499712E+00    0.106003E-01   -0.472282E+00
   -0.632645E+00    0.504418E-01   -0.439890E+01
   -0.685137E+00   -0.285929E-01   -0.479221E+00
   -0.748395E+00   -0.115256E+00    0.409238E+01
   -0.805070E+00   -0.557873E-01   -0.215213E+00
   -0.827673E+00   -0.106453E+00    0.501203E+01
   -0.847588E+00   -0.148928E+00    0.102015E+02
    0.000000E+00   -0.334172E+00    0.000000E+00
    0.000000E+00   -0.334172E+00    0.000000E+00
    0.000000E+00   -0.334172E+00    0.000000E+00
    0.911455E-01   -0.369415E+00   -0.361327E+01
    0.165865E+00   -0.276257E+00   -0.286262E+01
    0.227972E+00   -0.179528E+00   -0.172094E+01
    0.362075E+00   -0.233507E+00   -0.559302E+01
    0.429739E+00   -0.121581E+00   -0.321612E+01
    0.499740E+00   -0.106234E-01   -0.398878E+00
    0.632687E+00   -0.504549E-01   -0.430930E+01
    0.685178E+00    0.285705E-01   -0.361963E+00
    0.748436E+00    0.115225E+00    0.395785E+01
    0.805127E+00    0.557653E-01   -0.128042E+00
    0.827730E+00    0.106422E+00    0.490933E+01
    0.847645E+00    0.148887E+00    0.100581E+02
    0.000000E+00    0.000000E+00    0.000000E+00
