# vtk DataFile Version 1.0
Geometric Data
ASCII
 
DATASET UNSTRUCTURED_GRID
POINTS        31 float
  6.  0.  3.
  24.  0.  3.
  42.  0.  3.
  23.3209991  30.  3.
  41.3209991  30.  3.
  59.3209991  30.  3.
  40.6409988  60.  3.
  58.6409988  60.  3.
  76.6409988  60.  3.
  57.9620018  90.  3.
  75.961998  90.  3.
  93.961998  90.  3.
  75.2819977  120.  3.
  93.2819977  120.  3.
  111.281998  120.  3.
  6.  0. -3.
  24.  0. -3.
  42.  0. -3.
  23.3209991  30. -3.
  41.3209991  30. -3.
  59.3209991  30. -3.
  40.6409988  60. -3.
  58.6409988  60. -3.
  76.6409988  60. -3.
  57.9620018  90. -3.
  75.961998  90. -3.
  93.961998  90. -3.
  75.2819977  120. -3.
  93.2819977  120. -3.
  111.281998  120. -3.
  9.  0.  0.
 
CELLS       83       325
          4         15          0          3         18
          4         18          3          6         21
          4         21          6          9         24
          4         24          9         12         27
          4         16          1          4         19
          4         19          4          7         22
          4         22          7         10         25
          4         25         10         13         28
          4         17          2          5         20
          4         20          5          8         23
          4         23          8         11         26
          4         26         11         14         29
          4         15          0          1         16
          4         16          1          2         17
          4         18          3          4         19
          4         19          4          5         20
          4         21          6          7         22
          4         22          7          8         23
          4         24          9         10         25
          4         25         10         11         26
          4         27         12         13         28
          4         28         13         14         29
          4          0          1          4          3
          4          3          4          7          6
          4          6          7         10          9
          4          9         10         13         12
          4          1          2          5          4
          4          4          5          8          7
          4          7          8         11         10
          4         10         11         14         13
          4         15         16         19         18
          4         18         19         22         21
          4         21         22         25         24
          4         24         25         28         27
          4         16         17         20         19
          4         19         20         23         22
          4         22         23         26         25
          4         25         26         29         28
          2          0         15
          2          1         16
          2          2         17
          2          3         18
          2          4         19
          2          5         20
          2          6         21
          2          7         22
          2          8         23
          2          9         24
          2         10         25
          2         11         26
          2         12         27
          2         13         28
          2         14         29
          2          0          3
          2          3          6
          2          6          9
          2          9         12
          2         15         18
          2         18         21
          2         21         24
          2         24         27
          2          1          4
          2          4          7
          2          7         10
          2         10         13
          2         16         19
          2         19         22
          2         22         25
          2         25         28
          2          2          5
          2          5          8
          2          8         11
          2         11         14
          2         17         20
          2         20         23
          2         23         26
          2         26         29
          2          0         30
          2          1         30
          2          2         30
          2         15         30
          2         16         30
          2         17         30
CELL_TYPES       83
       9
       9
       9
       9
       9
       9
       9
       9
       9
       9
       9
       9
       9
       9
       9
       9
       9
       9
       9
       9
       9
       9
       9
       9
       9
       9
       9
       9
       9
       9
       9
       9
       9
       9
       9
       9
       9
       9
       3
       3
       3
       3
       3
       3
       3
       3
       3
       3
       3
       3
       3
       3
       3
       3
       3
       3
       3
       3
       3
       3
       3
       3
       3
       3
       3
       3
       3
       3
       3
       3
       3
       3
       3
       3
       3
       3
       3
       3
       3
       3
       3
       3
       3
POINT_DATA       31
VECTORS Disp_xyz float
    0.000000E+00    0.334172E+00    0.000000E+00
    0.000000E+00    0.334172E+00    0.000000E+00
    0.000000E+00    0.334172E+00    0.000000E+00
   -0.911362E-01    0.369417E+00   -0.362902E+01
   -0.165855E+00    0.276253E+00   -0.288498E+01
   -0.227961E+00    0.179516E+00   -0.174776E+01
   -0.362049E+00    0.233503E+00   -0.564066E+01
   -0.429712E+00    0.121568E+00   -0.327195E+01
   -0.499712E+00    0.106003E-01   -0.472282E+00
   -0.632645E+00    0.504418E-01   -0.439890E+01
   -0.685137E+00   -0.285929E-01   -0.479221E+00
   -0.748395E+00   -0.115256E+00    0.409238E+01
   -0.805070E+00   -0.557873E-01   -0.215213E+00
   -0.827673E+00   -0.106453E+00    0.501203E+01
   -0.847588E+00   -0.148928E+00    0.102015E+02
    0.000000E+00   -0.334172E+00    0.000000E+00
    0.000000E+00   -0.334172E+00    0.000000E+00
    0.000000E+00   -0.334172E+00    0.000000E+00
    0.911455E-01   -0.369415E+00   -0.361327E+01
    0.165865E+00   -0.276257E+00   -0.286262E+01
    0.227972E+00   -0.179528E+00   -0.172094E+01
    0.362075E+00   -0.233507E+00   -0.559302E+01
    0.429739E+00   -0.121581E+00   -0.321612E+01
    0.499740E+00   -0.106234E-01   -0.398878E+00
    0.632687E+00   -0.504549E-01   -0.430930E+01
    0.685178E+00    0.285705E-01   -0.361963E+00
    0.748436E+00    0.115225E+00    0.395785E+01
    0.805127E+00    0.557653E-01   -0.128042E+00
    0.827730E+00    0.106422E+00    0.490933E+01
    0.847645E+00    0.148887E+00    0.100581E+02
    0.000000E+00    0.000000E+00    0.000000E+00
