# vtk DataFile Version 1.0
Geometric Data
ASCII
 
DATASET UNSTRUCTURED_GRID
POINTS       247 float
  0.  0.  0.
  12.  0.  0.
  24.  0.  0.
  36.  0.  0.
  48.  0.  0.
  36.  0.  0.
  24.  0.  0.
  12.  0.  0.
  0.  120.  0.
  12.  120.  0.
  24.  120.  0.
  36.  120.  0.
  48.  120.  0.
  36.  120.  0.
  24.  120.  0.
  12.  120.  0.
  0.  0.  0.
  4.79999971  0.  0.
  9.59999943  0.  0.
  14.3999996  0.  0.
  19.1999989  0.  0.
  24.  0.  0.
  28.7999992  0.  0.
  33.5999985  0.  0.
  38.3999977  0.  0.
  43.2000008  0.  0.
  48.  0.  0.
  0.  6.  0.
  4.79999971  6.  0.
  9.59999943  6.  0.
  14.3999996  6.  0.
  19.1999989  6.  0.
  24.  6.  0.
  28.7999992  6.  0.
  33.5999985  6.  0.
  38.3999977  6.  0.
  43.2000008  6.  0.
  48.  6.  0.
  0.  12.  0.
  4.79999971  12.  0.
  9.59999943  12.  0.
  14.3999996  12.  0.
  19.1999989  12.  0.
  24.  12.  0.
  28.7999992  12.  0.
  33.5999985  12.  0.
  38.3999977  12.  0.
  43.2000008  12.  0.
  48.  12.  0.
  0.  18.  0.
  4.79999971  18.  0.
  9.59999943  18.  0.
  14.3999996  18.  0.
  19.1999989  18.  0.
  24.  18.  0.
  28.7999992  18.  0.
  33.5999985  18.  0.
  38.3999977  18.  0.
  43.2000008  18.  0.
  48.  18.  0.
  0.  24.  0.
  4.79999971  24.  0.
  9.59999943  24.  0.
  14.3999996  24.  0.
  19.1999989  24.  0.
  24.  24.  0.
  28.7999992  24.  0.
  33.5999985  24.  0.
  38.3999977  24.  0.
  43.2000008  24.  0.
  48.  24.  0.
  0.  30.  0.
  4.79999971  30.  0.
  9.59999943  30.  0.
  14.3999996  30.  0.
  19.1999989  30.  0.
  24.  30.  0.
  28.7999992  30.  0.
  33.5999985  30.  0.
  38.3999977  30.  0.
  43.2000008  30.  0.
  48.  30.  0.
  0.  36.  0.
  4.79999971  36.  0.
  9.59999943  36.  0.
  14.3999996  36.  0.
  19.1999989  36.  0.
  24.  36.  0.
  28.7999992  36.  0.
  33.5999985  36.  0.
  38.3999977  36.  0.
  43.2000008  36.  0.
  48.  36.  0.
  0.  42.  0.
  4.79999971  42.  0.
  9.59999943  42.  0.
  14.3999996  42.  0.
  19.1999989  42.  0.
  24.  42.  0.
  28.7999992  42.  0.
  33.5999985  42.  0.
  38.3999977  42.  0.
  43.2000008  42.  0.
  48.  42.  0.
  0.  48.  0.
  4.79999971  48.  0.
  9.59999943  48.  0.
  14.3999996  48.  0.
  19.1999989  48.  0.
  24.  48.  0.
  28.7999992  48.  0.
  33.5999985  48.  0.
  38.3999977  48.  0.
  43.2000008  48.  0.
  48.  48.  0.
  0.  54.  0.
  4.79999971  54.  0.
  9.59999943  54.  0.
  14.3999996  54.  0.
  19.1999989  54.  0.
  24.  54.  0.
  28.7999992  54.  0.
  33.5999985  54.  0.
  38.3999977  54.  0.
  43.2000008  54.  0.
  48.  54.  0.
  0.  60.  0.
  4.79999971  60.  0.
  9.59999943  60.  0.
  14.3999996  60.  0.
  19.1999989  60.  0.
  24.  60.  0.
  28.7999992  60.  0.
  33.5999985  60.  0.
  38.3999977  60.  0.
  43.2000008  60.  0.
  48.  60.  0.
  0.  66.  0.
  4.79999971  66.  0.
  9.59999943  66.  0.
  14.3999996  66.  0.
  19.1999989  66.  0.
  24.  66.  0.
  28.7999992  66.  0.
  33.5999985  66.  0.
  38.3999977  66.  0.
  43.2000008  66.  0.
  48.  66.  0.
  0.  72.  0.
  4.79999971  72.  0.
  9.59999943  72.  0.
  14.3999996  72.  0.
  19.1999989  72.  0.
  24.  72.  0.
  28.7999992  72.  0.
  33.5999985  72.  0.
  38.3999977  72.  0.
  43.2000008  72.  0.
  48.  72.  0.
  0.  78.  0.
  4.79999971  78.  0.
  9.59999943  78.  0.
  14.3999996  78.  0.
  19.1999989  78.  0.
  24.  78.  0.
  28.7999992  78.  0.
  33.5999985  78.  0.
  38.3999977  78.  0.
  43.2000008  78.  0.
  48.  78.  0.
  0.  84.  0.
  4.79999971  84.  0.
  9.59999943  84.  0.
  14.3999996  84.  0.
  19.1999989  84.  0.
  24.  84.  0.
  28.7999992  84.  0.
  33.5999985  84.  0.
  38.3999977  84.  0.
  43.2000008  84.  0.
  48.  84.  0.
  0.  90.  0.
  4.79999971  90.  0.
  9.59999943  90.  0.
  14.3999996  90.  0.
  19.1999989  90.  0.
  24.  90.  0.
  28.7999992  90.  0.
  33.5999985  90.  0.
  38.3999977  90.  0.
  43.2000008  90.  0.
  48.  90.  0.
  0.  96.  0.
  4.79999971  96.  0.
  9.59999943  96.  0.
  14.3999996  96.  0.
  19.1999989  96.  0.
  24.  96.  0.
  28.7999992  96.  0.
  33.5999985  96.  0.
  38.3999977  96.  0.
  43.2000008  96.  0.
  48.  96.  0.
  0.  102.  0.
  4.79999971  102.  0.
  9.59999943  102.  0.
  14.3999996  102.  0.
  19.1999989  102.  0.
  24.  102.  0.
  28.7999992  102.  0.
  33.5999985  102.  0.
  38.3999977  102.  0.
  43.2000008  102.  0.
  48.  102.  0.
  0.  108.  0.
  4.79999971  108.  0.
  9.59999943  108.  0.
  14.3999996  108.  0.
  19.1999989  108.  0.
  24.  108.  0.
  28.7999992  108.  0.
  33.5999985  108.  0.
  38.3999977  108.  0.
  43.2000008  108.  0.
  48.  108.  0.
  0.  114.  0.
  4.79999971  114.  0.
  9.59999943  114.  0.
  14.3999996  114.  0.
  19.1999989  114.  0.
  24.  114.  0.
  28.7999992  114.  0.
  33.5999985  114.  0.
  38.3999977  114.  0.
  43.2000008  114.  0.
  48.  114.  0.
  0.  120.  0.
  4.79999971  120.  0.
  9.59999943  120.  0.
  14.3999996  120.  0.
  19.1999989  120.  0.
  24.  120.  0.
  28.7999992  120.  0.
  33.5999985  120.  0.
  38.3999977  120.  0.
  43.2000008  120.  0.
  48.  120.  0.
CELLS     200    1000
          4         16         17         28         27
          4         17         18         29         28
          4         18         19         30         29
          4         19         20         31         30
          4         20         21         32         31
          4         21         22         33         32
          4         22         23         34         33
          4         23         24         35         34
          4         24         25         36         35
          4         25         26         37         36
          4         27         28         39         38
          4         28         29         40         39
          4         29         30         41         40
          4         30         31         42         41
          4         31         32         43         42
          4         32         33         44         43
          4         33         34         45         44
          4         34         35         46         45
          4         35         36         47         46
          4         36         37         48         47
          4         38         39         50         49
          4         39         40         51         50
          4         40         41         52         51
          4         41         42         53         52
          4         42         43         54         53
          4         43         44         55         54
          4         44         45         56         55
          4         45         46         57         56
          4         46         47         58         57
          4         47         48         59         58
          4         49         50         61         60
          4         50         51         62         61
          4         51         52         63         62
          4         52         53         64         63
          4         53         54         65         64
          4         54         55         66         65
          4         55         56         67         66
          4         56         57         68         67
          4         57         58         69         68
          4         58         59         70         69
          4         60         61         72         71
          4         61         62         73         72
          4         62         63         74         73
          4         63         64         75         74
          4         64         65         76         75
          4         65         66         77         76
          4         66         67         78         77
          4         67         68         79         78
          4         68         69         80         79
          4         69         70         81         80
          4         71         72         83         82
          4         72         73         84         83
          4         73         74         85         84
          4         74         75         86         85
          4         75         76         87         86
          4         76         77         88         87
          4         77         78         89         88
          4         78         79         90         89
          4         79         80         91         90
          4         80         81         92         91
          4         82         83         94         93
          4         83         84         95         94
          4         84         85         96         95
          4         85         86         97         96
          4         86         87         98         97
          4         87         88         99         98
          4         88         89        100         99
          4         89         90        101        100
          4         90         91        102        101
          4         91         92        103        102
          4         93         94        105        104
          4         94         95        106        105
          4         95         96        107        106
          4         96         97        108        107
          4         97         98        109        108
          4         98         99        110        109
          4         99        100        111        110
          4        100        101        112        111
          4        101        102        113        112
          4        102        103        114        113
          4        104        105        116        115
          4        105        106        117        116
          4        106        107        118        117
          4        107        108        119        118
          4        108        109        120        119
          4        109        110        121        120
          4        110        111        122        121
          4        111        112        123        122
          4        112        113        124        123
          4        113        114        125        124
          4        115        116        127        126
          4        116        117        128        127
          4        117        118        129        128
          4        118        119        130        129
          4        119        120        131        130
          4        120        121        132        131
          4        121        122        133        132
          4        122        123        134        133
          4        123        124        135        134
          4        124        125        136        135
          4        126        127        138        137
          4        127        128        139        138
          4        128        129        140        139
          4        129        130        141        140
          4        130        131        142        141
          4        131        132        143        142
          4        132        133        144        143
          4        133        134        145        144
          4        134        135        146        145
          4        135        136        147        146
          4        137        138        149        148
          4        138        139        150        149
          4        139        140        151        150
          4        140        141        152        151
          4        141        142        153        152
          4        142        143        154        153
          4        143        144        155        154
          4        144        145        156        155
          4        145        146        157        156
          4        146        147        158        157
          4        148        149        160        159
          4        149        150        161        160
          4        150        151        162        161
          4        151        152        163        162
          4        152        153        164        163
          4        153        154        165        164
          4        154        155        166        165
          4        155        156        167        166
          4        156        157        168        167
          4        157        158        169        168
          4        159        160        171        170
          4        160        161        172        171
          4        161        162        173        172
          4        162        163        174        173
          4        163        164        175        174
          4        164        165        176        175
          4        165        166        177        176
          4        166        167        178        177
          4        167        168        179        178
          4        168        169        180        179
          4        170        171        182        181
          4        171        172        183        182
          4        172        173        184        183
          4        173        174        185        184
          4        174        175        186        185
          4        175        176        187        186
          4        176        177        188        187
          4        177        178        189        188
          4        178        179        190        189
          4        179        180        191        190
          4        181        182        193        192
          4        182        183        194        193
          4        183        184        195        194
          4        184        185        196        195
          4        185        186        197        196
          4        186        187        198        197
          4        187        188        199        198
          4        188        189        200        199
          4        189        190        201        200
          4        190        191        202        201
          4        192        193        204        203
          4        193        194        205        204
          4        194        195        206        205
          4        195        196        207        206
          4        196        197        208        207
          4        197        198        209        208
          4        198        199        210        209
          4        199        200        211        210
          4        200        201        212        211
          4        201        202        213        212
          4        203        204        215        214
          4        204        205        216        215
          4        205        206        217        216
          4        206        207        218        217
          4        207        208        219        218
          4        208        209        220        219
          4        209        210        221        220
          4        210        211        222        221
          4        211        212        223        222
          4        212        213        224        223
          4        214        215        226        225
          4        215        216        227        226
          4        216        217        228        227
          4        217        218        229        228
          4        218        219        230        229
          4        219        220        231        230
          4        220        221        232        231
          4        221        222        233        232
          4        222        223        234        233
          4        223        224        235        234
          4        225        226        237        236
          4        226        227        238        237
          4        227        228        239        238
          4        228        229        240        239
          4        229        230        241        240
          4        230        231        242        241
          4        231        232        243        242
          4        232        233        244        243
          4        233        234        245        244
          4        234        235        246        245
CELL_TYPES      200
       9
       9
       9
       9
       9
       9
       9
       9
       9
       9
       9
       9
       9
       9
       9
       9
       9
       9
       9
       9
       9
       9
       9
       9
       9
       9
       9
       9
       9
       9
       9
       9
       9
       9
       9
       9
       9
       9
       9
       9
       9
       9
       9
       9
       9
       9
       9
       9
       9
       9
       9
       9
       9
       9
       9
       9
       9
       9
       9
       9
       9
       9
       9
       9
       9
       9
       9
       9
       9
       9
       9
       9
       9
       9
       9
       9
       9
       9
       9
       9
       9
       9
       9
       9
       9
       9
       9
       9
       9
       9
       9
       9
       9
       9
       9
       9
       9
       9
       9
       9
       9
       9
       9
       9
       9
       9
       9
       9
       9
       9
       9
       9
       9
       9
       9
       9
       9
       9
       9
       9
       9
       9
       9
       9
       9
       9
       9
       9
       9
       9
       9
       9
       9
       9
       9
       9
       9
       9
       9
       9
       9
       9
       9
       9
       9
       9
       9
       9
       9
       9
       9
       9
       9
       9
       9
       9
       9
       9
       9
       9
       9
       9
       9
       9
       9
       9
       9
       9
       9
       9
       9
       9
       9
       9
       9
       9
       9
       9
       9
       9
       9
       9
       9
       9
       9
       9
       9
       9
       9
       9
       9
       9
       9
       9
       9
       9
       9
       9
       9
       9
POINT_DATA       31
VECTORS Disp_xyz float
    0.000000E+00    0.000000E+00   -0.110343E+00
    0.000000E+00    0.000000E+00   -0.110343E+00
    0.000000E+00    0.000000E+00   -0.110343E+00
    0.195714E-02   -0.290865E-01    0.701030E-01
    0.600591E-02   -0.226370E-01    0.434290E-01
    0.965751E-02   -0.215106E-01   -0.239130E-02
    0.106517E-01   -0.390777E-01    0.430964E+00
    0.116743E-01   -0.355820E-01    0.357412E+00
    0.131256E-01   -0.344969E-01    0.280590E+00
    0.147134E-01   -0.412639E-01    0.844030E+00
    0.149481E-01   -0.397955E-01    0.745760E+00
    0.153315E-01   -0.393768E-01    0.651391E+00
    0.164265E-01   -0.407160E-01    0.125269E+01
    0.162854E-01   -0.405755E-01    0.114942E+01
    0.162760E-01   -0.403513E-01    0.104997E+01
    0.000000E+00    0.000000E+00   -0.110343E+00
    0.000000E+00    0.000000E+00   -0.110343E+00
    0.000000E+00    0.000000E+00   -0.110343E+00
   -0.195642E-02    0.290869E-01    0.625535E-01
   -0.600521E-02    0.226370E-01    0.409885E-01
   -0.965676E-02    0.215102E-01   -0.310124E-02
   -0.106500E-01    0.390782E-01    0.422481E+00
   -0.116726E-01    0.355820E-01    0.355521E+00
   -0.131238E-01    0.344964E-01    0.280442E+00
   -0.147109E-01    0.412643E-01    0.835571E+00
   -0.149457E-01    0.397955E-01    0.744061E+00
   -0.153291E-01    0.393763E-01    0.651180E+00
   -0.164232E-01    0.407165E-01    0.124997E+01
   -0.162821E-01    0.405754E-01    0.114927E+01
   -0.162727E-01    0.403508E-01    0.105020E+01
    0.000000E+00    0.000000E+00   -0.110343E+00
