# vtk DataFile Version 1.0
Geometric Data
ASCII
 
DATASET UNSTRUCTURED_GRID
POINTS        31 float
  6.  0.  3.
  24.  0.  3.
  42.  0.  3.
  6.  30.  3.
  24.  30.  3.
  42.  30.  3.
  6.  60.  3.
  24.  60.  3.
  42.  60.  3.
  6.  90.  3.
  24.  90.  3.
  42.  90.  3.
  6.  120.  3.
  24.  120.  3.
  42.  120.  3.
  6.  0. -3.
  24.  0. -3.
  42.  0. -3.
  6.  30. -3.
  24.  30. -3.
  42.  30. -3.
  6.  60. -3.
  24.  60. -3.
  42.  60. -3.
  6.  90. -3.
  24.  90. -3.
  42.  90. -3.
  6.  120. -3.
  24.  120. -3.
  42.  120. -3.
  9.  0.  0.
 
CELLS       83       325
          4         15          0          3         18
          4         18          3          6         21
          4         21          6          9         24
          4         24          9         12         27
          4         16          1          4         19
          4         19          4          7         22
          4         22          7         10         25
          4         25         10         13         28
          4         17          2          5         20
          4         20          5          8         23
          4         23          8         11         26
          4         26         11         14         29
          4         15          0          1         16
          4         16          1          2         17
          4         18          3          4         19
          4         19          4          5         20
          4         21          6          7         22
          4         22          7          8         23
          4         24          9         10         25
          4         25         10         11         26
          4         27         12         13         28
          4         28         13         14         29
          4          0          1          4          3
          4          3          4          7          6
          4          6          7         10          9
          4          9         10         13         12
          4          1          2          5          4
          4          4          5          8          7
          4          7          8         11         10
          4         10         11         14         13
          4         15         16         19         18
          4         18         19         22         21
          4         21         22         25         24
          4         24         25         28         27
          4         16         17         20         19
          4         19         20         23         22
          4         22         23         26         25
          4         25         26         29         28
          2          0         15
          2          1         16
          2          2         17
          2          3         18
          2          4         19
          2          5         20
          2          6         21
          2          7         22
          2          8         23
          2          9         24
          2         10         25
          2         11         26
          2         12         27
          2         13         28
          2         14         29
          2          0          3
          2          3          6
          2          6          9
          2          9         12
          2         15         18
          2         18         21
          2         21         24
          2         24         27
          2          1          4
          2          4          7
          2          7         10
          2         10         13
          2         16         19
          2         19         22
          2         22         25
          2         25         28
          2          2          5
          2          5          8
          2          8         11
          2         11         14
          2         17         20
          2         20         23
          2         23         26
          2         26         29
          2          0         30
          2          1         30
          2          2         30
          2         15         30
          2         16         30
          2         17         30
CELL_TYPES       83
       9
       9
       9
       9
       9
       9
       9
       9
       9
       9
       9
       9
       9
       9
       9
       9
       9
       9
       9
       9
       9
       9
       9
       9
       9
       9
       9
       9
       9
       9
       9
       9
       9
       9
       9
       9
       9
       9
       3
       3
       3
       3
       3
       3
       3
       3
       3
       3
       3
       3
       3
       3
       3
       3
       3
       3
       3
       3
       3
       3
       3
       3
       3
       3
       3
       3
       3
       3
       3
       3
       3
       3
       3
       3
       3
       3
       3
       3
       3
       3
       3
       3
       3
POINT_DATA       31
VECTORS Disp_xyz float
    0.000000E+00    0.000000E+00   -0.110343E+00
    0.000000E+00    0.000000E+00   -0.110343E+00
    0.000000E+00    0.000000E+00   -0.110343E+00
    0.195714E-02   -0.290865E-01    0.701030E-01
    0.600591E-02   -0.226370E-01    0.434290E-01
    0.965751E-02   -0.215106E-01   -0.239130E-02
    0.106517E-01   -0.390777E-01    0.430964E+00
    0.116743E-01   -0.355820E-01    0.357412E+00
    0.131256E-01   -0.344969E-01    0.280590E+00
    0.147134E-01   -0.412639E-01    0.844030E+00
    0.149481E-01   -0.397955E-01    0.745760E+00
    0.153315E-01   -0.393768E-01    0.651391E+00
    0.164265E-01   -0.407160E-01    0.125269E+01
    0.162854E-01   -0.405755E-01    0.114942E+01
    0.162760E-01   -0.403513E-01    0.104997E+01
    0.000000E+00    0.000000E+00   -0.110343E+00
    0.000000E+00    0.000000E+00   -0.110343E+00
    0.000000E+00    0.000000E+00   -0.110343E+00
   -0.195642E-02    0.290869E-01    0.625535E-01
   -0.600521E-02    0.226370E-01    0.409885E-01
   -0.965676E-02    0.215102E-01   -0.310124E-02
   -0.106500E-01    0.390782E-01    0.422481E+00
   -0.116726E-01    0.355820E-01    0.355521E+00
   -0.131238E-01    0.344964E-01    0.280442E+00
   -0.147109E-01    0.412643E-01    0.835571E+00
   -0.149457E-01    0.397955E-01    0.744061E+00
   -0.153291E-01    0.393763E-01    0.651180E+00
   -0.164232E-01    0.407165E-01    0.124997E+01
   -0.162821E-01    0.405754E-01    0.114927E+01
   -0.162727E-01    0.403508E-01    0.105020E+01
    0.000000E+00    0.000000E+00   -0.110343E+00
