# vtk DataFile Version 1.0
Geometric Data
ASCII
 
DATASET UNSTRUCTURED_GRID
POINTS        31 float
  6.  0.  3.
  24.  0.  3.
  42.  0.  3.
 -11.3210001  30.  3.
  6.6789999  30.  3.
  24.6790009  30.  3.
 -28.6410007  60.  3.
 -10.6409998  60.  3.
  7.35900021  60.  3.
 -45.9620018  90.  3.
 -27.9619999  90.  3.
 -9.96199989  90.  3.
 -63.2820015  120.  3.
 -45.2820015  120.  3.
 -27.2819996  120.  3.
  6.  0. -3.
  24.  0. -3.
  42.  0. -3.
 -11.3210001  30. -3.
  6.6789999  30. -3.
  24.6790009  30. -3.
 -28.6410007  60. -3.
 -10.6409998  60. -3.
  7.35900021  60. -3.
 -45.9620018  90. -3.
 -27.9619999  90. -3.
 -9.96199989  90. -3.
 -63.2820015  120. -3.
 -45.2820015  120. -3.
 -27.2819996  120. -3.
  9.  0.  0.
 
CELLS       83       325
          4         15          0          3         18
          4         18          3          6         21
          4         21          6          9         24
          4         24          9         12         27
          4         16          1          4         19
          4         19          4          7         22
          4         22          7         10         25
          4         25         10         13         28
          4         17          2          5         20
          4         20          5          8         23
          4         23          8         11         26
          4         26         11         14         29
          4         15          0          1         16
          4         16          1          2         17
          4         18          3          4         19
          4         19          4          5         20
          4         21          6          7         22
          4         22          7          8         23
          4         24          9         10         25
          4         25         10         11         26
          4         27         12         13         28
          4         28         13         14         29
          4          0          1          4          3
          4          3          4          7          6
          4          6          7         10          9
          4          9         10         13         12
          4          1          2          5          4
          4          4          5          8          7
          4          7          8         11         10
          4         10         11         14         13
          4         15         16         19         18
          4         18         19         22         21
          4         21         22         25         24
          4         24         25         28         27
          4         16         17         20         19
          4         19         20         23         22
          4         22         23         26         25
          4         25         26         29         28
          2          0         15
          2          1         16
          2          2         17
          2          3         18
          2          4         19
          2          5         20
          2          6         21
          2          7         22
          2          8         23
          2          9         24
          2         10         25
          2         11         26
          2         12         27
          2         13         28
          2         14         29
          2          0          3
          2          3          6
          2          6          9
          2          9         12
          2         15         18
          2         18         21
          2         21         24
          2         24         27
          2          1          4
          2          4          7
          2          7         10
          2         10         13
          2         16         19
          2         19         22
          2         22         25
          2         25         28
          2          2          5
          2          5          8
          2          8         11
          2         11         14
          2         17         20
          2         20         23
          2         23         26
          2         26         29
          2          0         30
          2          1         30
          2          2         30
          2         15         30
          2         16         30
          2         17         30
CELL_TYPES       83
       9
       9
       9
       9
       9
       9
       9
       9
       9
       9
       9
       9
       9
       9
       9
       9
       9
       9
       9
       9
       9
       9
       9
       9
       9
       9
       9
       9
       9
       9
       9
       9
       9
       9
       9
       9
       9
       9
       3
       3
       3
       3
       3
       3
       3
       3
       3
       3
       3
       3
       3
       3
       3
       3
       3
       3
       3
       3
       3
       3
       3
       3
       3
       3
       3
       3
       3
       3
       3
       3
       3
       3
       3
       3
       3
       3
       3
       3
       3
       3
       3
       3
       3
POINT_DATA       31
VECTORS Disp_xyz float
    0.000000E+00   -0.608672E-02    0.000000E+00
    0.000000E+00   -0.608672E-02    0.000000E+00
    0.000000E+00   -0.608672E-02    0.000000E+00
   -0.121678E+00   -0.579255E-02   -0.579862E+00
   -0.726823E-01   -0.376836E-01   -0.342557E-01
   -0.357943E-01   -0.528550E-01    0.309987E+00
   -0.182371E+00   -0.809478E-01   -0.115796E+01
   -0.154653E+00   -0.865747E-01   -0.118409E+00
   -0.119982E+00   -0.103505E+00    0.765166E+00
   -0.218629E+00   -0.127690E+00   -0.132668E+01
   -0.203245E+00   -0.129657E+00    0.294578E-01
   -0.180851E+00   -0.141781E+00    0.129993E+01
   -0.234476E+00   -0.145726E+00   -0.125899E+01
   -0.231761E+00   -0.143132E+00    0.163238E+00
   -0.223303E+00   -0.149183E+00    0.164562E+01
    0.000000E+00    0.608672E-02    0.000000E+00
    0.000000E+00    0.608672E-02    0.000000E+00
    0.000000E+00    0.608672E-02    0.000000E+00
    0.121679E+00    0.579344E-02   -0.544251E+00
    0.726835E-01    0.376839E-01   -0.515677E-03
    0.357957E-01    0.528551E-01    0.308162E+00
    0.182373E+00    0.809491E-01   -0.110423E+01
    0.154655E+00    0.865755E-01   -0.808650E-01
    0.119984E+00    0.103505E+00    0.749324E+00
    0.218631E+00    0.127692E+00   -0.127787E+01
    0.203248E+00    0.129659E+00    0.270282E-01
    0.180853E+00    0.141781E+00    0.122607E+01
    0.234479E+00    0.145728E+00   -0.124532E+01
    0.231765E+00    0.143134E+00    0.177636E+00
    0.223307E+00    0.149184E+00    0.158356E+01
    0.000000E+00    0.000000E+00    0.000000E+00
