# vtk DataFile Version 1.0
Geometric Data
ASCII
 
DATASET UNSTRUCTURED_GRID
POINTS        30 float
  6.  0.  3.
  24.  0.  3.
  42.  0.  3.
  6.  30.  3.
  24.  30.  3.
  42.  30.  3.
  6.  60.  3.
  24.  60.  3.
  42.  60.  3.
  6.  90.  3.
  24.  90.  3.
  42.  90.  3.
  6.  120.  3.
  24.  120.  3.
  42.  120.  3.
  6.  0. -3.
  24.  0. -3.
  42.  0. -3.
  6.  30. -3.
  24.  30. -3.
  42.  30. -3.
  6.  60. -3.
  24.  60. -3.
  42.  60. -3.
  6.  90. -3.
  24.  90. -3.
  42.  90. -3.
  6.  120. -3.
  24.  120. -3.
  42.  120. -3.
 
CELLS       77       307
          4         15          0          3         18
          4         18          3          6         21
          4         21          6          9         24
          4         24          9         12         27
          4         16          1          4         19
          4         19          4          7         22
          4         22          7         10         25
          4         25         10         13         28
          4         17          2          5         20
          4         20          5          8         23
          4         23          8         11         26
          4         26         11         14         29
          4         15          0          1         16
          4         16          1          2         17
          4         18          3          4         19
          4         19          4          5         20
          4         21          6          7         22
          4         22          7          8         23
          4         24          9         10         25
          4         25         10         11         26
          4         27         12         13         28
          4         28         13         14         29
          4          0          1          4          3
          4          3          4          7          6
          4          6          7         10          9
          4          9         10         13         12
          4          1          2          5          4
          4          4          5          8          7
          4          7          8         11         10
          4         10         11         14         13
          4         15         16         19         18
          4         18         19         22         21
          4         21         22         25         24
          4         24         25         28         27
          4         16         17         20         19
          4         19         20         23         22
          4         22         23         26         25
          4         25         26         29         28
          2          0         15
          2          1         16
          2          2         17
          2          3         18
          2          4         19
          2          5         20
          2          6         21
          2          7         22
          2          8         23
          2          9         24
          2         10         25
          2         11         26
          2         12         27
          2         13         28
          2         14         29
          2          0          3
          2          3          6
          2          6          9
          2          9         12
          2         15         18
          2         18         21
          2         21         24
          2         24         27
          2          1          4
          2          4          7
          2          7         10
          2         10         13
          2         16         19
          2         19         22
          2         22         25
          2         25         28
          2          2          5
          2          5          8
          2          8         11
          2         11         14
          2         17         20
          2         20         23
          2         23         26
          2         26         29
CELL_TYPES       77
       9
       9
       9
       9
       9
       9
       9
       9
       9
       9
       9
       9
       9
       9
       9
       9
       9
       9
       9
       9
       9
       9
       9
       9
       9
       9
       9
       9
       9
       9
       9
       9
       9
       9
       9
       9
       9
       9
       3
       3
       3
       3
       3
       3
       3
       3
       3
       3
       3
       3
       3
       3
       3
       3
       3
       3
       3
       3
       3
       3
       3
       3
       3
       3
       3
       3
       3
       3
       3
       3
       3
       3
       3
       3
       3
       3
       3
POINT_DATA    30   
VECTORS Disp_xyz float
	0.000000	0.000000		0.000000
	0.000000	0.000000		0.000000
	0.000000	0.000000		0.000000
   -0.876952E-02   -0.273765E-01    0.135450E+00
   -0.367725E-02   -0.281494E-01    0.170135E+00
    0.171229E-02   -0.320786E-01    0.176053E+00
   -0.112323E-01   -0.491082E-01    0.520859E+00
   -0.815752E-02   -0.499678E-01    0.578987E+00
   -0.516823E-02   -0.533542E-01    0.618918E+00
   -0.142893E-01   -0.619057E-01    0.107898E+01
   -0.128626E-01   -0.627208E-01    0.116070E+01
   -0.113609E-01   -0.665932E-01    0.123429E+01
   -0.168804E-01   -0.660564E-01    0.172166E+01
   -0.166161E-01   -0.669967E-01    0.182646E+01
   -0.163164E-01   -0.712746E-01    0.193238E+01
	0.000000	0.000000		0.000000
	0.000000	0.000000		0.000000
	0.000000	0.000000		0.000000
    0.876903E-02    0.273763E-01    0.135450E+00
    0.367675E-02    0.281495E-01    0.170135E+00
   -0.171291E-02    0.320788E-01    0.176045E+00
    0.112314E-01    0.491080E-01    0.520859E+00
    0.815664E-02    0.499679E-01    0.578987E+00
    0.516737E-02    0.533544E-01    0.618923E+00
    0.142881E-01    0.619056E-01    0.107898E+01
    0.128614E-01    0.627208E-01    0.116070E+01
    0.113596E-01    0.665934E-01    0.123429E+01
    0.168788E-01    0.660562E-01    0.172166E+01
    0.166145E-01    0.669967E-01    0.182646E+01
    0.163149E-01    0.712749E-01    0.194738E+01
